# Wall shear stress
# Time        	patch         	min           	max           
1000          	sphereWall	(-8.824331e+03 -4.323973e+03 -1.608325e-11)	(-7.321672e+01 4.298975e+03 9.221670e-12)
