/*--------------------------------*- C++ -*----------------------------------*\
| =========                 |                                                 |
| \\      /  F ield         | OpenFOAM: The Open Source CFD Toolbox           |
|  \\    /   O peration     | Version:  2312                                  |
|   \\  /    A nd           | Website:  www.openfoam.com                      |
|    \\/     M anipulation  |                                                 |
\*---------------------------------------------------------------------------*/
FoamFile
{
    version     2.0;
    format      ascii;
    arch        "LSB;label=32;scalar=64";
    class       volVectorField;
    location    "1000";
    object      wallShearStress;
}
// * * * * * * * * * * * * * * * * * * * * * * * * * * * * * * * * * * * * * //

dimensions      [0 2 -2 0 0 0 0];

internalField   uniform (0 0 0);

boundaryField
{
    inlet
    {
        type            calculated;
        value           uniform (0 0 0);
    }
    outlet
    {
        type            calculated;
        value           uniform (0 0 0);
    }
    cylenderWall
    {
        type            calculated;
        value           uniform (0 0 0);
    }
    sphereWall
    {
        type            calculated;
        value           nonuniform List<vector> 
400
(
(-78.4154 -45.0821 -5.29032e-12)
(-73.8573 -107.16 5.40907e-13)
(-76.5496 -165.634 2.88426e-12)
(-80.1778 -231.885 4.22674e-12)
(-84.087 -296.376 5.10621e-12)
(-89.1786 -361.176 5.90547e-12)
(-95.2496 -425.816 6.04845e-12)
(-102.35 -490.342 6.31288e-12)
(-110.475 -554.734 6.6261e-12)
(-119.625 -618.985 6.97786e-12)
(-129.796 -683.093 7.27851e-12)
(-140.987 -747.049 7.85131e-12)
(-153.193 -810.849 7.89084e-12)
(-166.412 -874.484 8.5242e-12)
(-180.641 -937.945 8.12225e-12)
(-195.877 -1001.22 8.17787e-12)
(-212.116 -1064.3 8.26147e-12)
(-229.355 -1127.17 8.57958e-12)
(-247.591 -1189.82 8.95101e-12)
(-266.82 -1252.24 9.22167e-12)
(-287.038 -1314.4 8.35137e-12)
(-308.241 -1376.29 8.27809e-12)
(-330.424 -1437.91 8.17235e-12)
(-353.583 -1499.22 7.9542e-12)
(-377.713 -1560.22 7.56797e-12)
(-402.808 -1620.89 7.27952e-12)
(-428.865 -1681.21 7.08515e-12)
(-455.876 -1741.16 7.22334e-12)
(-483.836 -1800.73 6.7577e-12)
(-512.74 -1859.91 6.29292e-12)
(-542.58 -1918.67 5.56681e-12)
(-573.351 -1977 5.03654e-12)
(-605.045 -2034.88 5.25585e-12)
(-637.657 -2092.31 5.15814e-12)
(-671.179 -2149.26 4.76337e-12)
(-705.603 -2205.72 4.5647e-12)
(-740.924 -2261.68 4.41467e-12)
(-777.133 -2317.12 4.52539e-12)
(-814.223 -2372.03 4.38861e-12)
(-852.186 -2426.39 4.33972e-12)
(-891.015 -2480.2 4.30552e-12)
(-930.701 -2533.44 4.13099e-12)
(-971.238 -2586.1 3.99396e-12)
(-1012.62 -2638.17 3.94852e-12)
(-1054.83 -2689.64 3.78723e-12)
(-1097.86 -2740.49 3.79237e-12)
(-1141.72 -2790.71 3.94536e-12)
(-1186.38 -2840.3 4.08689e-12)
(-1231.84 -2889.24 4.21809e-12)
(-1278.09 -2937.53 4.19654e-12)
(-1325.12 -2985.14 4.53928e-12)
(-1372.93 -3032.09 4.66019e-12)
(-1421.5 -3078.34 4.70816e-12)
(-1470.83 -3123.9 4.76081e-12)
(-1520.9 -3168.76 4.76531e-12)
(-1571.71 -3212.9 4.82305e-12)
(-1623.25 -3256.31 4.93938e-12)
(-1675.51 -3299 5.24348e-12)
(-1728.47 -3340.94 5.1103e-12)
(-1782.13 -3382.13 5.1998e-12)
(-1836.48 -3422.57 5.25046e-12)
(-1891.51 -3462.23 5.36904e-12)
(-1947.2 -3501.12 5.39166e-12)
(-2003.55 -3539.22 5.37919e-12)
(-2060.55 -3576.53 5.36515e-12)
(-2118.19 -3613.04 5.25327e-12)
(-2176.45 -3648.74 5.17083e-12)
(-2235.32 -3683.62 5.12509e-12)
(-2294.8 -3717.67 5.16695e-12)
(-2354.86 -3750.89 5.08945e-12)
(-2415.51 -3783.26 4.95944e-12)
(-2476.72 -3814.78 4.83265e-12)
(-2538.49 -3845.43 4.70592e-12)
(-2600.81 -3875.22 4.53074e-12)
(-2663.65 -3904.13 4.43564e-12)
(-2727.01 -3932.16 4.14268e-12)
(-2790.87 -3959.29 3.88594e-12)
(-2855.22 -3985.52 3.67678e-12)
(-2920.05 -4010.83 3.55518e-12)
(-2985.35 -4035.23 3.42955e-12)
(-3051.09 -4058.7 3.22138e-12)
(-3117.26 -4081.23 2.86048e-12)
(-3183.85 -4102.82 2.50127e-12)
(-3250.85 -4123.45 2.15883e-12)
(-3318.23 -4143.12 1.84301e-12)
(-3385.99 -4161.83 1.72573e-12)
(-3454.1 -4179.56 1.51895e-12)
(-3522.54 -4196.3 1.31035e-12)
(-3591.31 -4212.04 1.08974e-12)
(-3660.39 -4226.79 8.63996e-13)
(-3729.75 -4240.53 3.64923e-13)
(-3799.38 -4253.25 1.66725e-13)
(-3869.26 -4264.95 -7.46925e-14)
(-3939.37 -4275.61 -4.07919e-13)
(-4009.7 -4285.24 -5.55881e-13)
(-4080.22 -4293.82 -6.35338e-13)
(-4150.91 -4301.35 -7.859e-13)
(-4221.75 -4307.82 -9.79067e-13)
(-4292.73 -4313.21 -1.05859e-12)
(-4363.82 -4317.53 -1.13217e-12)
(-4435 -4320.77 -1.13654e-12)
(-4506.24 -4322.92 -1.28206e-12)
(-4577.53 -4323.97 -1.14398e-12)
(-4648.83 -4323.92 -9.27528e-13)
(-4720.13 -4322.76 -1.00031e-12)
(-4791.39 -4320.48 -1.02847e-12)
(-4862.6 -4317.09 -9.97505e-13)
(-4933.74 -4312.57 -8.04057e-13)
(-5004.77 -4306.92 -9.8669e-13)
(-5075.69 -4300.14 -8.93212e-13)
(-5146.46 -4292.23 -9.28507e-13)
(-5217.06 -4283.18 -9.6349e-13)
(-5287.47 -4273.01 -9.45084e-13)
(-5357.68 -4261.69 -9.80421e-13)
(-5427.64 -4249.25 -1.2149e-12)
(-5497.35 -4235.67 -1.36021e-12)
(-5566.78 -4220.95 -1.40029e-12)
(-5635.91 -4205.11 -1.43044e-12)
(-5704.71 -4188.13 -1.46973e-12)
(-5773.16 -4170.03 -1.5144e-12)
(-5841.25 -4150.8 -1.60403e-12)
(-5908.94 -4130.46 -1.60043e-12)
(-5976.23 -4109 -1.62046e-12)
(-6043.07 -4086.43 -1.69219e-12)
(-6109.47 -4062.75 -1.90599e-12)
(-6175.39 -4037.97 -1.94514e-12)
(-6240.81 -4012.1 -2.03138e-12)
(-6305.72 -3985.15 -2.1478e-12)
(-6370.09 -3957.11 -2.21963e-12)
(-6433.91 -3928 -2.25843e-12)
(-6497.16 -3897.83 -2.28584e-12)
(-6559.81 -3866.61 -2.44224e-12)
(-6621.85 -3834.34 -2.63851e-12)
(-6683.26 -3801.04 -2.7987e-12)
(-6744.03 -3766.72 -2.99747e-12)
(-6804.14 -3731.38 -3.20233e-12)
(-6863.57 -3695.03 -3.34878e-12)
(-6922.3 -3657.7 -3.46869e-12)
(-6980.32 -3619.39 -3.53778e-12)
(-7037.62 -3580.11 -3.48793e-12)
(-7094.18 -3539.88 -3.50281e-12)
(-7149.98 -3498.71 -3.56549e-12)
(-7205.02 -3456.61 -3.66215e-12)
(-7259.28 -3413.59 -3.54019e-12)
(-7312.75 -3369.68 -3.62206e-12)
(-7365.41 -3324.88 -3.73725e-12)
(-7417.25 -3279.22 -3.81459e-12)
(-7468.27 -3232.69 -3.88547e-12)
(-7518.45 -3185.33 -3.83733e-12)
(-7567.78 -3137.14 -3.89188e-12)
(-7616.25 -3088.14 -3.86161e-12)
(-7663.85 -3038.35 -3.85016e-12)
(-7710.57 -2987.77 -3.63673e-12)
(-7756.41 -2936.44 -3.41741e-12)
(-7801.36 -2884.36 -3.347e-12)
(-7845.41 -2831.54 -3.31801e-12)
(-7888.54 -2778.02 -3.3152e-12)
(-7930.76 -2723.79 -3.35258e-12)
(-7972.06 -2668.88 -3.08762e-12)
(-8012.42 -2613.31 -2.84461e-12)
(-8051.85 -2557.09 -2.81306e-12)
(-8090.35 -2500.24 -2.79079e-12)
(-8127.89 -2442.78 -2.51938e-12)
(-8164.48 -2384.71 -2.44177e-12)
(-8200.12 -2326.06 -2.26008e-12)
(-8234.8 -2266.85 -2.13191e-12)
(-8268.51 -2207.09 -2.13066e-12)
(-8301.25 -2146.8 -2.17803e-12)
(-8333.02 -2085.99 -2.25704e-12)
(-8363.82 -2024.69 -2.18842e-12)
(-8393.64 -1962.9 -2.14941e-12)
(-8422.47 -1900.65 -2.09359e-12)
(-8450.32 -1837.95 -1.98774e-12)
(-8477.18 -1774.81 -1.96402e-12)
(-8503.06 -1711.27 -1.87174e-12)
(-8527.94 -1647.32 -1.80471e-12)
(-8551.82 -1582.99 -1.70911e-12)
(-8574.71 -1518.29 -1.5774e-12)
(-8596.6 -1453.24 -1.58921e-12)
(-8617.5 -1387.86 -1.73605e-12)
(-8637.39 -1322.16 -1.73419e-12)
(-8656.28 -1256.16 -1.59531e-12)
(-8674.17 -1189.87 -1.60916e-12)
(-8691.05 -1123.32 -1.7412e-12)
(-8706.93 -1056.51 -1.72944e-12)
(-8721.8 -989.457 -1.70331e-12)
(-8735.67 -922.187 -1.70106e-12)
(-8748.52 -854.711 -1.76266e-12)
(-8760.38 -787.045 -1.8668e-12)
(-8771.22 -719.204 -1.90729e-12)
(-8781.05 -651.204 -1.99935e-12)
(-8789.87 -583.06 -1.96585e-12)
(-8797.69 -514.789 -2.01784e-12)
(-8804.5 -446.405 -2.11296e-12)
(-8810.3 -377.923 -2.08769e-12)
(-8815.1 -309.358 -2.07972e-12)
(-8818.89 -240.724 -2.10178e-12)
(-8821.68 -172.036 -2.07832e-12)
(-8823.46 -103.287 -2.13258e-12)
(-8824.33 -34.515 -2.19591e-12)
(-8824.04 34.1798 -2.19755e-12)
(-8822.59 102.943 -2.26493e-12)
(-8820.24 171.673 -2.25326e-12)
(-8816.86 240.335 -2.17986e-12)
(-8812.49 308.933 -2.27751e-12)
(-8807.12 377.453 -2.30048e-12)
(-8800.74 445.881 -2.28511e-12)
(-8793.36 514.203 -2.17513e-12)
(-8784.97 582.403 -2.22297e-12)
(-8775.58 650.466 -2.2859e-12)
(-8765.18 718.377 -2.35566e-12)
(-8753.78 786.12 -2.32389e-12)
(-8741.36 853.68 -2.3383e-12)
(-8727.95 921.042 -2.18454e-12)
(-8713.53 988.189 -2.11749e-12)
(-8698.11 1055.11 -2.08763e-12)
(-8681.68 1121.78 -2.18782e-12)
(-8664.26 1188.18 -2.27564e-12)
(-8645.83 1254.32 -2.38257e-12)
(-8626.41 1320.15 -2.48737e-12)
(-8605.99 1385.68 -2.41818e-12)
(-8584.57 1450.88 -2.24497e-12)
(-8562.16 1515.74 -2.11029e-12)
(-8538.76 1580.25 -2.09107e-12)
(-8514.37 1644.37 -2.21949e-12)
(-8488.99 1708.11 -2.20226e-12)
(-8462.62 1771.44 -2.11666e-12)
(-8435.27 1834.35 -1.94316e-12)
(-8406.94 1896.82 -1.83443e-12)
(-8377.63 1958.84 -1.88334e-12)
(-8347.35 2020.38 -2.07013e-12)
(-8316.09 2081.44 -2.12811e-12)
(-8283.87 2141.99 -2.15062e-12)
(-8250.68 2202.02 -1.89131e-12)
(-8216.53 2261.51 -1.72955e-12)
(-8181.43 2320.45 -1.64845e-12)
(-8145.37 2378.82 -1.64721e-12)
(-8108.36 2436.6 -1.61656e-12)
(-8070.41 2493.77 -1.6181e-12)
(-8031.53 2550.33 -1.5887e-12)
(-7991.71 2606.25 -1.55734e-12)
(-7950.96 2661.52 -1.54624e-12)
(-7909.3 2716.11 -1.70494e-12)
(-7866.72 2770.03 -1.65605e-12)
(-7823.23 2823.24 -1.72261e-12)
(-7778.85 2875.73 -1.78677e-12)
(-7733.57 2927.49 -1.61937e-12)
(-7687.41 2978.49 -1.80995e-12)
(-7640.37 3028.74 -1.86575e-12)
(-7592.46 3078.2 -2.00267e-12)
(-7543.69 3126.86 -2.36153e-12)
(-7494.08 3174.71 -2.29045e-12)
(-7443.63 3221.73 -2.4557e-12)
(-7392.35 3267.91 -2.66538e-12)
(-7340.25 3313.23 -2.83285e-12)
(-7287.34 3357.68 -2.86454e-12)
(-7233.64 3401.25 -2.80883e-12)
(-7179.16 3443.91 -2.7108e-12)
(-7123.91 3485.66 -2.64643e-12)
(-7067.9 3526.47 -2.69724e-12)
(-7011.14 3566.35 -3.28023e-12)
(-6953.66 3605.28 -3.5068e-12)
(-6895.46 3643.23 -3.63053e-12)
(-6836.56 3680.21 -3.7273e-12)
(-6776.98 3716.2 -3.92971e-12)
(-6716.73 3751.18 -4.45596e-12)
(-6655.83 3785.15 -4.69653e-12)
(-6594.29 3818.1 -4.62542e-12)
(-6532.13 3850.01 -4.68797e-12)
(-6469.37 3880.88 -4.79363e-12)
(-6406.03 3910.7 -5.13905e-12)
(-6342.13 3939.45 -5.13985e-12)
(-6277.68 3967.14 -5.76732e-12)
(-6212.7 3993.75 -6.12535e-12)
(-6147.23 4019.27 -6.09822e-12)
(-6081.26 4043.71 -6.02071e-12)
(-6014.83 4067.04 -5.83961e-12)
(-5947.95 4089.28 -5.5658e-12)
(-5880.65 4110.4 -5.86633e-12)
(-5812.95 4130.42 -6.02365e-12)
(-5744.87 4149.32 -6.21533e-12)
(-5676.44 4167.1 -6.00525e-12)
(-5607.66 4183.76 -6.45545e-12)
(-5538.57 4199.29 -6.3782e-12)
(-5469.19 4213.7 -6.44711e-12)
(-5399.54 4226.98 -6.41745e-12)
(-5329.65 4239.14 -6.21957e-12)
(-5259.53 4250.17 -5.94562e-12)
(-5189.21 4260.07 -5.86159e-12)
(-5118.72 4268.85 -5.90332e-12)
(-5048.07 4276.5 -5.82872e-12)
(-4977.29 4283.03 -5.81113e-12)
(-4906.4 4288.45 -5.75219e-12)
(-4835.43 4292.74 -5.66323e-12)
(-4764.39 4295.93 -5.58958e-12)
(-4693.32 4298 -5.63459e-12)
(-4622.22 4298.97 -5.5069e-12)
(-4551.13 4298.84 -5.14947e-12)
(-4480.07 4297.62 -5.15856e-12)
(-4409.06 4295.3 -4.97561e-12)
(-4338.11 4291.89 -4.81354e-12)
(-4267.25 4287.41 -4.80412e-12)
(-4196.52 4281.87 -4.76444e-12)
(-4125.92 4275.26 -4.87446e-12)
(-4055.48 4267.6 -5.04905e-12)
(-3985.22 4258.89 -4.72514e-12)
(-3915.16 4249.14 -4.56099e-12)
(-3845.31 4238.35 -4.37077e-12)
(-3775.7 4226.54 -4.27131e-12)
(-3706.34 4213.71 -4.45511e-12)
(-3637.25 4199.88 -4.33698e-12)
(-3568.46 4185.04 -4.38868e-12)
(-3499.97 4169.2 -3.95349e-12)
(-3431.81 4152.39 -4.16603e-12)
(-3363.99 4134.59 -4.14778e-12)
(-3296.53 4115.83 -4.1894e-12)
(-3229.44 4096.1 -4.78375e-12)
(-3162.75 4075.42 -4.78732e-12)
(-3096.46 4053.8 -5.11102e-12)
(-3030.6 4031.25 -5.32454e-12)
(-2965.17 4007.77 -5.39348e-12)
(-2900.19 3983.37 -5.25617e-12)
(-2835.68 3958.06 -5.63577e-12)
(-2771.65 3931.85 -5.96335e-12)
(-2708.12 3904.74 -6.47253e-12)
(-2645.09 3876.76 -6.38595e-12)
(-2582.58 3847.89 -6.49295e-12)
(-2520.6 3818.16 -6.75927e-12)
(-2459.17 3787.57 -7.09973e-12)
(-2398.29 3756.13 -7.23254e-12)
(-2337.99 3723.85 -7.36474e-12)
(-2278.26 3690.74 -8.01655e-12)
(-2219.13 3656.79 -8.43468e-12)
(-2160.6 3622.04 -9.10741e-12)
(-2102.69 3586.47 -9.33865e-12)
(-2045.4 3550.1 -9.29561e-12)
(-1988.75 3512.94 -9.57436e-12)
(-1932.75 3475 -9.69107e-12)
(-1877.4 3436.29 -9.82696e-12)
(-1822.72 3396.8 -1.00159e-11)
(-1768.72 3356.56 -1.07056e-11)
(-1715.41 3315.58 -1.08764e-11)
(-1662.79 3273.85 -1.16553e-11)
(-1610.88 3231.39 -1.15448e-11)
(-1559.69 3188.21 -1.16229e-11)
(-1509.22 3144.31 -1.1673e-11)
(-1459.49 3099.71 -1.17732e-11)
(-1410.5 3054.42 -1.18947e-11)
(-1362.26 3008.44 -1.19638e-11)
(-1314.79 2961.78 -1.19848e-11)
(-1268.09 2914.46 -1.1892e-11)
(-1222.16 2866.48 -1.17882e-11)
(-1177.03 2817.85 -1.11908e-11)
(-1132.69 2768.58 -1.13598e-11)
(-1089.16 2718.69 -1.09764e-11)
(-1046.44 2668.18 -1.12923e-11)
(-1004.54 2617.07 -1.12708e-11)
(-963.467 2565.36 -1.12929e-11)
(-923.235 2513.07 -1.1953e-11)
(-883.848 2460.21 -1.20017e-11)
(-845.313 2406.79 -1.30507e-11)
(-807.64 2352.82 -1.30261e-11)
(-770.835 2298.31 -1.32225e-11)
(-734.905 2243.28 -1.22453e-11)
(-699.858 2187.75 -1.15326e-11)
(-665.702 2131.71 -1.18194e-11)
(-632.443 2075.2 -1.15967e-11)
(-600.088 2018.21 -1.30536e-11)
(-568.644 1960.77 -1.37052e-11)
(-538.118 1902.9 -1.38799e-11)
(-508.515 1844.6 -1.35247e-11)
(-479.843 1785.89 -1.35915e-11)
(-452.107 1726.79 -1.23425e-11)
(-425.314 1667.31 -1.24321e-11)
(-399.468 1607.48 -1.33109e-11)
(-374.576 1547.3 -1.36699e-11)
(-350.642 1486.79 -1.37763e-11)
(-327.671 1425.97 -1.40566e-11)
(-305.669 1364.86 -1.45136e-11)
(-284.64 1303.47 -1.55852e-11)
(-264.588 1241.81 -1.49367e-11)
(-245.517 1179.91 -1.57745e-11)
(-227.431 1117.78 -1.51923e-11)
(-210.334 1055.42 -1.48691e-11)
(-194.229 992.86 -1.49168e-11)
(-179.119 930.106 -1.60833e-11)
(-165.008 867.169 -1.35287e-11)
(-151.898 804.061 -1.03039e-11)
(-139.793 740.79 -1.05326e-11)
(-128.695 677.364 -9.14758e-12)
(-118.608 613.789 -6.41441e-12)
(-109.534 550.072 -6.22086e-12)
(-101.476 486.218 -3.56652e-12)
(-94.4346 422.23 -9.79158e-12)
(-88.4137 358.131 -5.14268e-12)
(-83.3641 293.875 -5.78378e-12)
(-79.4868 229.926 -1.1442e-12)
(-75.888 164.233 -3.19972e-13)
(-73.2167 106.254 -2.98052e-13)
(-77.7387 44.7019 -1.7228e-13)
)
;
    }
    frontWedge
    {
        type            wedge;
    }
    backWedge
    {
        type            wedge;
    }
    defaultFaces
    {
        type            empty;
    }
}


// ************************************************************************* //
